TITLE="points"
VARIABLES="X","Y","Z","SPL"
ZONE N=2522,E=5040,F=FEPOINT,ET=TRIANGLE
0.0                           108.14239689060872            0.0                           108.14239689060872            
9.606826098920454             109.80675976268009            0.0                           110.22620195431682            
9.563837500311822             109.73266251270962            0.8364248318271644            110.15182166609817            
9.446871881891633             109.64389926953986            1.6655804521032507            110.06271936320812            
9.256824971193696             109.53840433529527            2.4802725848194345            109.95682145717453            
8.995203290071188             109.41417415486347            3.2739394151982006            109.83211673966268            
8.66413936389785              109.2693435631859             4.040126884133338             109.68673292101693            
8.328619871691249             109.92344082625772            4.808475919838539             110.34332871869772            
7.858001383740172             109.64668049336485            5.502184033294656             110.06551121081091            
7.3313259062264295            109.38983733047374            6.151687835647877             109.80768695295458            
6.763273368539971             109.32514972696278            6.763242039288444             109.7427522543627             
6.142409442033857             109.22447262054992            7.320225414456278             109.64169057940185            
5.476180016998541             109.12772191212883            7.820782890943893             109.54457030057117            
4.7694862464540195            109.03099188654579            8.260972709323301             109.44747078358327            
4.027600526392624             108.92982135678571            8.637205453265329             109.34591380048622            
3.254593242891479             108.76609700823577            8.941906605336621             109.18156405419458            
2.459377230564357             108.61180713893995            9.178497568822419             109.02668482518115            
1.6441713983535462            108.22442675580679            9.324543597436278             108.63782471823818            
0.8252480680958868            108.22700137064697            9.432584166483325             108.64040916764678            
5.796992787200963e-16         108.21091044429251            9.467207673652608             108.62425677683028            
-0.8248394334628061           108.17341105919336            9.427913473246955             108.58661415078399            
-1.6424690528567396           108.11237313066883            9.314889132689538             108.52534306828453            
-2.4461205767227283           108.02636253432128            9.129023188258074             108.43900392683544            
-3.215671053055001            107.46534623553164            8.83496894510726              107.87584464607987            
-3.9685745407914594           107.33341425910812            8.5106239908343               107.7434087130925             
-4.7078173482965076           107.62123394046422            8.154159300421629             108.03232781417654            
-5.39828576540549             107.57546793216225            7.709538551227014             107.98638698790467            
-6.047516455737605            107.53708325300447            7.207136559586706             107.94785568613469            
-6.651074689016816            107.51151056591765            6.6510438794989               107.92218531595495            
-7.204945242735605            107.50412656030615            6.045642298973878             107.91477310476209            
-7.705587455321344            107.51997161460861            5.395463578252074             107.93067868433928            
-8.095745049926784            106.84989417813163            4.674027116790454             107.25804167184778            
-8.467609832034393            106.79077621384441            3.948484285617844             107.19869788750577            
-8.769717474985066            106.67145190104652            3.191870464250335             107.07891777716515            
-9.011337359802136            106.63348592973024            2.4144966633407368            107.0408067826258             
-9.185237454709313            106.60727305738489            1.6194516178224105            107.01449378179427            
-9.290237410730908            106.5934554431152             0.8124965803371487            107.00062338670831            
-9.325634620287268            106.59271957670681            1.1420608587752545e-15        106.99988470942179            
-9.29131036372372             106.60576619062095            -0.8125904176201976           107.01298115906869            
-9.18747769818718             106.63327415418152            -1.6198465957358739           107.04059419813233            
-9.01491830561254             106.67586018778344            -2.415456141536434            107.08334290276932            
-8.774862709905305            106.73403654882785            -3.1937431498209206           107.14174148711245            
-8.468988936214325            106.80816903292512            -3.949127368056772            107.21615714404598            
-8.099423068316286            106.89843768750352            -4.676150597406821            107.30677060874712            
-7.668667055603657            107.0048025437671             -5.369611860504876            107.4135417597463             
-7.187072524130504            107.23744986282023            -6.030645368399614            107.64707774996678            
-6.620347623709632            107.01482193123904            -6.620316956527517            107.42359941948718            
-6.023038350730991            107.10181300029193            -7.17796474223097             107.51092277887204            
-5.38271390473424             107.26515642382762            -7.687299665518387            107.67489014508399            
-4.700264188668155            107.44856786206451            -8.141076875536694            107.85900218222564            
-3.9877474354480977           107.85196121433718            -8.551740340183748            108.26393642498752            
-3.2267851531571914           107.83677123388262            -8.865504633501875            108.2486884215232             
-2.439215434240811            107.72141541429716            -9.103252910850015            108.13289196332961            
-1.640142956963799            107.95926233282584            -9.301697209641087            108.3716474145661             
-0.8236470436484901           108.01703532314818            -9.414284459478106            108.42964108738313            
-1.736792705188815e-15        108.06747957115242            -9.454659125107407            108.4802780233966             
0.8244056115309936            108.1165175642277             -9.422954889224554            108.52950333283869            
1.6447726831890996            108.26400517610445            -9.327953647428188            108.67755432102575            
2.455230539713301             108.4286796457753             -9.163021947017821            108.84285781773114            
3.249886305085142             108.60879463099607            -8.928974421459799            109.02366080999548            
4.01690154135165              108.64045836719048            -8.614261437011791            109.05544549600148            
4.787776254939097             109.44910353708774            -8.292651857378486            109.86717954588255            
5.492752065518478             109.45796487287609            -7.844450190618184            109.87607473038943            
6.156066139567535             109.46731634497615            -7.336500803667465            109.88546192344111            
6.76416782633733              109.33960821877467            -6.76413649294244             109.7572659750285             
7.3398986161667725            109.51774971056028            -6.15888116413076             109.93608793546557            
7.860336696853764             109.67926630218747            -5.5038192229438945           110.09822149159771            
8.321119050903683             109.82444290791199            -4.804145368475686            110.24395264600221            
8.700083216419761             109.72265588945882            -4.056887663109055            110.14177681933549            
9.021908057770554             109.73900062177043            -3.2836590167152844           110.1581839856025             
9.274604750259728             109.74879706005653            -2.4850364967135143           110.1680178445315             
9.456117700204233             109.7512096665057             -1.6672105847479721           110.170439666706              
9.564944155508792             109.7453599494073             -0.8365216166049293           110.16456760473406            
19.459757644205247            110.36162581745909            0.0                           112.06413619282512            
19.2851100724639              109.7890484126684             1.6874649352803184            111.48272583577284            
19.148497545610102            110.27175221794307            3.3764917622005006            111.97287614458189            
18.763346070592696            110.16601868543623            5.027706621682183             111.86551149768376            
18.09449949152737             109.20489708103322            6.585949065840191             110.8895630049365             
17.577172820418806            109.99032154663449            8.19642289536729              111.68710394029661            
16.840954120289442            110.28522345233986            9.723183472161494             111.98655519502125            
15.937909246282848            110.34380675826772            11.15988090291                112.04604224521191            
14.877670430064148            110.14428545903529            12.483871413512926            111.84344300036629            
13.672866579339749            109.66185742672525            13.672889323758731            111.35357271877538            
12.35046739251249             108.96756941001176            14.718754576051191            110.64857416256783            
11.04713876748562             109.22936809460703            15.776962777738667            110.91441152431631            
9.619331717643924             109.10780999469036            16.661185544465052            110.79097818991677            
8.098665644332318             108.67924738122457            17.36768101894426             110.35580429023157            
6.527655855368177             108.23980703708186            17.934623613202717            109.90958485290574            
4.919474530393405             107.79632577571999            18.359765584805178            109.45926216053779            
3.2871285458755524            107.3562453750746             18.642240940861118            109.01239279278046            
1.6471840053692546            107.18340026382442            18.827432516941112            108.83688126018089            
1.156649725871108e-15         107.12767161909913            18.889523521008876            108.78029290905722            
-1.6427671258613756           106.89599086531885            18.77694726417082             108.54503809695584            
-3.269837061057602            106.7915127030452             18.54417601224549             108.43894818645039            
-4.848879098802097            106.24942720045989            18.096299320803425            107.88850011956202            
-6.377090400638022            105.74317177818696            17.520947583159618            107.3744348711596             
-7.878358626440788            105.72285901445574            16.895230101594333            107.35380874949486            
-9.326659294278002            105.78815660330936            16.1542616029085              107.42011366151617            
-10.655377273344158           105.35579853514612            15.217468899648436            106.98108575597541            
-11.91423641696934            105.11872486060518            14.198873306506394            106.74035482840252            
-13.094494638039238           105.02308318004658            13.094516420353191            106.64323771693881            
-14.178955353677553           104.97146803510972            11.897578740254945            106.59082632313256            
-15.114727750430594           104.64462887353423            10.583481118394129            106.25894512761153            
-15.930766078769638           104.32473624801185            9.197683238703656             105.9341176299366             
-16.680577312976524           104.37981585448551            7.778330860876564             105.99004693032151            
-17.262938407671623           104.1862148775502             6.283281454283767             105.79345933852373            
-17.7714997262569             104.34254975339786            4.76193779695614              105.95220593806783            
-18.061724127148075           104.01327638545317            3.184858894604677             105.61785298452348            
-18.248961319164703           103.8903117598182             1.5968009627979165            105.49299142642312            
-18.31318344739212            103.85908890028814            2.242718149104705e-15         105.46128690271038            
-18.256443070275676           103.93290494864873            -1.5974556229272459           105.53624168554748            
-18.03574549298727            103.8636714620216             -3.180278031587706            105.46594015802813            
-17.665694908320898           103.72133349986326            -4.733587012307099            105.32140639768734            
-17.170593875377715           103.62889218675821            -6.24967033470119             105.22753902463157            
-16.690832501793487           104.44398837682589            -7.783112964646854            106.0552094198202             
-15.957373966764834           104.49898153436466            -9.213045395439906            106.1110509376526             
-15.086134371953484           104.44666675814697            -10.563459753390381           106.05792911959736            
-14.153643432578024           104.78407556152261            -11.876339476371465           106.40054301110243            
-13.093159338989231           105.01237354771055            -13.093181119081944           106.63236287083366            
-11.929357940750918           105.25214132492884            -14.216894486619122           106.87582946206786            
-10.652294414053774           105.32531654525705            -15.213066116511808           106.95013353104166            
-9.310741876255673            105.60761239585665            -16.12669180254779            107.23678426143763            
-7.862893008101427            105.51531966967693            -16.86206390633761            107.14306776750595            
-6.401745177662666            106.15199055889738            -17.588686164359576           107.78956035685599            
-4.8484923332179495           106.24095233009518            -18.09485588910816            107.87989451032301            
-3.257105516859621            106.37570578711654            -18.471971803868637           108.0167267620069             
-1.6403777927086007           106.74051530773527            -18.749637013131633           108.38716407207947            
-3.4672334374760304e-15       107.04382862811016            -18.87473972027447            108.69515650143903            
1.6486878631805282            107.28125732970264            -18.844621720675953           108.93624793294217            
3.2924834446046956            107.53113413099075            -18.672610094646682           109.18997949664072            
4.918991251088532             107.7857360810146             -18.357961958280743           109.44850910229934            
6.5154484137572455            108.03738657349429            -17.901083874677415           109.7040417193059             
8.076128356257254             108.37681045968985            -17.31934954713032            110.04870177961195            
9.545541414518526             108.27083933922495            -16.53337688084455            109.94109587956905            
11.012742760619396            108.8892751371407             -15.7278401468518             110.56907207120997            
12.366987737299228            109.11332760360997            -14.738442810730893           110.79658091706806            
13.57478962695114             108.87524104988307            -13.574812208221948           110.55482148497467            
14.740935949012757            109.1319951422271             -12.369137343601707           110.81553643330369            
15.801104897893529            109.39666166231471            -11.06408915184448            111.08428587164413            
16.636188289678635            108.94428723085171            -9.604961207221082            110.62493281733636            
17.42471444537111             109.03630318058114            -8.12532993129404             110.71836826508381            
17.913415818780944            108.11201115431342            -6.52003909989051             109.77981750755028            
18.7680543953263              110.19366286940148            -5.02896823436849             111.8935821388498             
19.152078406832686            110.29237356646001            -3.377123182414593            111.9938156114624             
19.3831892829652              110.34740784901814            -1.696046956745545            112.04969888873549            
29.521487583880443            110.17574411421721            0.0                           114.06231989700488            
29.436464991020156            110.27803518427297            2.575229336107695             114.1682194019196             
29.030204623750354            110.01355614146112            5.1187343001981285            113.89441055742489            
28.378800224816377            109.64726772736667            7.604026099622959             113.51520089926551            
27.677643963673               109.92360742798694            10.073821874140089            113.80128879988105            
26.589187343233718            109.4906205323762             12.39871130793932             113.35302779474398            
25.417037118375678            109.53221595072037            14.674509961870642            113.39609053919438            
23.93688698346965             109.05629161259458            16.760767732836534            112.90337742399365            
22.29170537102972             108.60178512928853            18.704949407458038            112.43283770301501            
20.516832928149498            108.28613470559596            20.516811893600146            112.10605234846798            
18.650890731406164            108.28780252926333            22.22724031644764             112.10777900652879            
16.585330404831517            107.91459745776486            23.68627518929933             111.7214086979397             
14.406108697591005            107.52862201923283            24.95208483637317             111.32181753296797            
12.147676084062983            107.27345526092937            26.05074411488919             111.05764947450204            
9.77345790213831              106.6459397329909             26.85235551590225             110.40799761634119            
7.3619490065318605            106.1559194188964             27.475160082070744            109.90069127344657            
4.923282905573066             105.81138136723328            27.921329294151693            109.54399924670837            
2.4709062568456908            105.80537233898886            28.24256838377087             109.53777824309822            
1.7274395992854573e-15        105.28579228171895            28.2112295641187              108.99986940317257            
-2.4464681117830036           104.75891943108522            27.963239299070185            108.45441050822986            
-4.8587079817090775           104.42353467493827            27.555106643954172            108.10719467000911            
-7.219215290822459            104.09776487181043            26.94247075146745             107.76993296330686            
-9.537379854497425            104.06990518175154            26.203736395809038            107.74109049071657            
-11.658951349423415           102.95763463865825            25.002671799113823            106.58958332806196            
-13.76398313827705            102.73573325199024            23.839891962645588            106.35985411538266            
-15.784559917523245           102.70428070888923            22.542657928570684            106.32729204773696            
-17.610635147650623           102.24803784156406            20.987513421703344            105.8549546898007             
-19.383801846011192           102.30609105969188            19.38378197308352             105.91505580180483            
-20.921558298911233           101.92663778434306            17.55526026352831             105.52221687680574            
-22.30309457601886            101.61274469922854            15.61677540485063             105.19725085297138            
-23.512852550669404           101.32632026316818            13.57513023173506             104.90072246630247            
-24.407864000407297           100.50823068703176            11.381546020115763            104.05377384174004            
-25.38033181871819            100.79967915240807            9.237670019309181             104.35550348612331            
-26.15540874320061            101.05674243679134            7.008274104402912             104.62163497280245            
-26.590236019498125           100.7669928978904             4.688508225395462             104.32166418647525            
-26.865220849486157           100.645365229034              2.350285772211753             104.1957459620515             
-26.935250709823386           100.52377209738535            3.298616856601668e-15         104.06986349317515            
-26.908442106633863           100.80728532772441            -2.3540669548158455           104.36337797800081            
-26.477848841400675           100.34108776606475            -4.66869162021179             103.88073476246598            
-26.108512713043595           100.87555008428727            -6.995708434450063            104.43405085217438            
-25.4639317061464             101.13170167638965            -9.26809783952954             104.69923848558142            
-24.627695119884446           101.4134650356101             -11.484054703503249           104.99094137057705            
-23.52422070652761            101.37531021021131            -13.581693629176398           104.95144058993571            
-22.252483362822254           101.38216036179784            -15.58133709619958            104.95853238847893            
-20.822258108020748           101.44286241521401            -17.471937564980017           105.02137577647531            
-19.297718050497426           101.85174795958388            -19.297698265825755           105.444685227554              
-17.62174004530801            102.31251331257226            -21.000747708069326           105.92170460702408            
-15.763519255392135           102.56737691929322            -22.512608788683956           106.18555881988762            
-13.810688002150615           103.0843429813309             -23.920787071110173           106.72076145290009            
-11.713638159738709           103.44056183058562            -25.11994790131843            107.08954633076678            
-9.500584736563573            103.66840450830152            -26.102642637806177           107.32542642035239            
-7.219971943845576            104.10867546047106            -26.94529461820688            107.78122843550065            
-4.868795667080944            104.64033958833976            -27.61231675974184            108.33164762548002            
-2.452145526907976            105.0020290268277             -28.028132406392846           108.70609607389179            
-5.186197198068618e-15        105.36458721021714            -28.232342591509926           109.08144391317819            
2.468921344230705             105.72037744381373            -28.21988074432318            109.44978505547765            
4.918710715934042             105.71311569555505            -27.89539911403509            109.44226714071745            
7.377435551377266             106.37922827436759            -27.532956638168613           110.13187760500594            
9.772440651583311             106.63483970652446            -26.849560642907942           110.39650602370564            
12.101919583753443            106.86938967217941            -25.95261910127279            110.63933000850787            
14.34751765591799             107.0912926816564             -24.850602286632224           110.8690609012426             
16.49299383436676             107.31379761904533            -23.554405074886258           111.099414955587              
18.550192039731048            107.70314197893869            -22.10723242772814            111.50249388448637            
20.45007573494367             107.9337958021517             -20.45005476883605            111.74128428595183            
22.266981589713023            108.48133464147482            -18.684203705368734           112.30813818604588            
23.906456420760847            108.91765017927045            -16.739460050100114           112.75984525504               
25.354034291656404            109.26071147954299            -14.638135320561682           113.11500843628798            
26.464749639978145            108.97820316620408            -12.34068519610023            112.82253431806265            
27.553850326878916            109.43195274990465            -10.028764749774586           113.2922904389338             
28.373704401290297            109.62757897653756            -7.6026606868928885           113.4948176051612             
28.977831374037372            109.81508122465343            -5.109499616764344            113.68893421020837            
29.28128187570004             109.69667159131106            -2.561653245664669            113.56634754119362            
39.61139009376324             108.83135096873156            0.0                           115.81591073267745            
39.37303033357455             108.58970337645196            3.444792595406086             115.55875472269408            
39.1087380091478              109.10794657831059            6.895979686649243             116.11025764781645            
38.03133373908246             108.17622377118207            10.190500931923124            115.1187388942819             
37.07245965252879             108.39259732516324            13.493298789002834            115.34899883307469            
35.603448916370354            107.93204222436377            16.60218208567952             114.85888630606034            
33.99988046485555             107.86507570269768            19.629868585390458            114.7876220184601             
32.129883678974615            107.76527783127676            22.497631202614087            114.68141933637526            
29.960637186000195            107.45615222569086            25.139997392886283            114.35245472072873            
27.516537609454677            106.91606826888106            27.516570434699783            113.77770934843241            
24.74929811606208             105.7863293535891             29.495090514682264            112.57546624292986            
22.109284358887304            105.90524037358695            31.575344411617944            112.70200871396065            
19.17942858412714             105.39004449464032            33.21974388974797             112.15374868231712            
16.111683578438416            104.7433955879614             34.551621522328496            111.46559925308851            
12.99422944938719             104.38382182099727            35.70139019965528             111.08294882262115            
9.804838318505963             104.0826921752602             36.59218856275521             110.7624933301623             
6.553331507280943             103.68746313424568            37.16582551986324             110.34189934758598            
3.271909710591205             103.14298532079458            37.39813887484517             109.76247813047095            
2.2854023408728975e-15        102.54529731957521            37.32345264714828             109.12643181128942            
-3.243024078548898            102.23240080433384            37.06797423885012             108.79345427719474            
-6.416767813681169            101.52673878665665            36.39133358350405             108.04250440365854            
-9.529997826317327            101.1651388799882             35.56646893453198             107.65769780024065            
-12.522079519166939           100.59099867739545            34.40416753961301             107.04671052626453            
-15.387338744701719           100.03436955149465            32.998258807309824            106.45435815185492            
-18.13030269571332            99.62514782029842             31.4026045955119              106.01887345862795            
-20.75121083539602            99.39995957771464             29.63581355460493             105.77923312366028            
-23.22517900208298            99.27176211982757             27.678714510354432            105.64280823132322            
-25.24717381946964            98.09840896375111             25.247203937527413            104.39415181777655            