TITLE="NACA0012"
VARIABLES="X","Y","dendity","presure","MA"
ZONE N=3224,E=6250,F=FEPOINT,ET=QUADRILATERAL
0                 0                 1                 0.364431          1.4
10                0                 1.64257           0.753692          0.766628
15                1                 1.26974           0.522567          1.10786
15                5                 1.27756           0.51751           1.12946
0                 5                 1                 0.364431          1.4
0.2               0                 1                 0.364431          1.4
0.4               0                 1                 0.364431          1.4
0.6               0                 1                 0.364431          1.4
0.8               0                 1                 0.364431          1.4
1                 0                 1                 0.364431          1.4
1.2               0                 1                 0.364431          1.4
1.4               0                 1                 0.364431          1.4
1.6               0                 1                 0.364431          1.4
1.8               0                 1                 0.364431          1.4
2                 0                 1                 0.364431          1.4
2.2               0                 1                 0.364431          1.4
2.4               0                 1                 0.364431          1.4
2.6               0                 1                 0.364431          1.4
2.8               0                 1                 0.364431          1.4
3                 0                 1                 0.364431          1.4
3.2               0                 1                 0.364431          1.4
3.4               0                 1                 0.364431          1.4
3.6               0                 1                 0.364431          1.4
3.8               0                 1                 0.364431          1.4
4                 0                 1                 0.364432          1.4
4.2               0                 1                 0.364431          1.4
4.4               0                 1                 0.364432          1.4
4.6               0                 1                 0.364431          1.4
4.8               0                 1                 0.364431          1.4
5                 0                 1                 0.364432          1.4
5.2               0                 1                 0.364431          1.4
5.4               0                 1                 0.364432          1.4
5.6               0                 1                 0.364432          1.4
5.8               0                 1                 0.364431          1.4
6                 0                 1                 0.364432          1.4
6.2               0                 1                 0.364431          1.4
6.4               0                 1                 0.364432          1.4
6.6               0                 1                 0.364431          1.39999
6.8               0                 0.999999          0.364431          1.39999
7                 0                 0.999998          0.36443           1.39999
7.2               0                 0.999998          0.364429          1.39998
7.4               0                 1.00001           0.364432          1.39994
7.6               0                 1.00003           0.364447          1.39999
7.8               0                 1.00005           0.364463          1.40009
8                 0                 0.999921          0.364405          1.40041
8.2               0                 0.999979          0.364444          1.40057
8.4               0                 1.00034           0.364617          1.4
8.6               0                 0.999754          0.364222          1.3984
8.8               0                 0.999834          0.364031          1.39333
9                 0                 1.00168           0.364843          1.38888
9.2               0                 1.00228           0.36543           1.40118
9.4               0                 0.997755          0.36358           1.42457
9.6               0                 0.978417          0.35365           1.43836
9.8               0                 1.12463           0.435303          1.27298
10.1923           0.0384615         1.65973           0.769343          0.7584
10.3846           0.0769231         1.58996           0.725009          0.803414
10.5769           0.115385          1.56718           0.711906          0.821397
10.7692           0.153846          1.55755           0.700552          0.83036
10.9615           0.192308          1.5465            0.692673          0.840758
11.1538           0.230769          1.53281           0.682885          0.853174
11.3462           0.269231          1.52134           0.675357          0.86453
11.5385           0.307692          1.50953           0.6677            0.872158
11.7308           0.346154          1.50221           0.663616          0.880274
11.9231           0.384615          1.49157           0.657336          0.888675
12.1154           0.423077          1.48637           0.653932          0.894204
12.3077           0.461538          1.47752           0.648548          0.895508
12.5              0.5               1.47615           0.647279          0.905164
12.6923           0.538462          1.46422           0.639879          0.917215
12.8846           0.576923          1.46078           0.637369          0.926265
13.0769           0.615385          1.42251           0.616467          0.917822
13.2692           0.653846          1.43326           0.626629          0.926029
13.4615           0.692308          1.43603           0.628033          0.957293
13.6538           0.730769          1.39076           0.59743           0.970506
13.8462           0.769231          1.33962           0.56461           0.970317
14.0385           0.807692          1.36792           0.580244          1.00513
14.2308           0.846154          1.3621            0.577566          1.0352
14.4231           0.884615          1.32874           0.558574          1.04227
14.6154           0.923077          1.28434           0.531714          1.05377
14.8077           0.961538          1.27532           0.525811          1.08531
15                1.2               1.26739           0.517561          1.11554
15                1.4               1.26334           0.511341          1.12832
15                1.6               1.25072           0.503829          1.13865
15                1.8               1.25138           0.504537          1.14109
15                2                 1.24759           0.5028            1.14073
15                2.2               1.2487            0.503497          1.13959
15                2.4               1.25443           0.506053          1.13869
15                2.6               1.26114           0.508656          1.138
15                2.8               1.26132           0.508453          1.13889
15                3                 1.2631            0.50977           1.13533
15                3.2               1.263             0.509792          1.13558
15                3.4               1.26462           0.510609          1.13634
15                3.6               1.26793           0.512244          1.13532
15                3.8               1.26897           0.512772          1.13452
15                4                 1.27047           0.514018          1.13167
15                4.2               1.27115           0.514422          1.13036
15                4.4               1.27282           0.514562          1.13135
15                4.6               1.27603           0.515576          1.13253
15                4.8               1.27709           0.516781          1.13181
14.8              5                 1.27862           0.518202          1.1276
14.6              5                 1.28              0.519015          1.12559
14.4              5                 1.28087           0.519554          1.12347
14.2              5                 1.28091           0.51952           1.12312
14                5                 1.27979           0.518812          1.12348
13.8              5                 1.27944           0.518572          1.12428
13.6              5                 1.27981           0.518532          1.12565
13.4              5                 1.27961           0.518271          1.12652
13.2              5                 1.27749           0.516994          1.12877
13                5                 1.27777           0.517143          1.12878
12.8              5                 1.27665           0.516289          1.13137
12.6              5                 1.27599           0.515827          1.13151
12.4              5                 1.27684           0.515982          1.12955
12.2              5                 1.27526           0.51429           1.12914
12                5                 1.27205           0.512685          1.13426
11.8              5                 1.21409           0.479505          1.18796
11.6              5                 1.05842           0.39403           1.3383
11.4              5                 1.00339           0.365449          1.39513
11.2              5                 1.00602           0.366797          1.39192
11                5                 1.00031           0.364468          1.39822
10.8              5                 0.998285          0.363844          1.40157
10.6              5                 0.999149          0.364199          1.40079
10.4              5                 0.999741          0.364329          1.40011
10.2              5                 0.999947          0.364384          1.39976
10                5                 1.00009           0.364464          1.39979
9.8               5                 0.999976          0.364417          1.39998
9.6               5                 0.999974          0.364421          1.40004
9.4               5                 1                 0.364433          1.40001
9.2               5                 0.999997          0.36443           1.4
9                 5                 1                 0.364432          1.4
8.8               5                 0.999998          0.364431          1.4
8.6               5                 1                 0.364432          1.4
8.4               5                 0.999999          0.364431          1.4
8.2               5                 1                 0.364431          1.4
8                 5                 1                 0.364431          1.4
7.8               5                 1                 0.364431          1.4
7.6               5                 1                 0.364431          1.4
7.4               5                 1                 0.364432          1.4
7.2               5                 1                 0.364431          1.4
7                 5                 1                 0.364432          1.4
6.8               5                 1                 0.364431          1.4
6.6               5                 1                 0.364431          1.4
6.4               5                 1                 0.364431          1.4
6.2               5                 1                 0.364431          1.4
6                 5                 1                 0.364431          1.4
5.8               5                 1                 0.364431          1.4
5.6               5                 1                 0.364431          1.4
5.4               5                 1                 0.364431          1.4
5.2               5                 1                 0.364431          1.4
5                 5                 1                 0.364431          1.4
4.8               5                 1                 0.364431          1.4
4.6               5                 1                 0.364431          1.4
4.4               5                 1                 0.364431          1.4
4.2               5                 1                 0.364431          1.4
4                 5                 1                 0.364431          1.4
3.8               5                 1                 0.364431          1.4
3.6               5                 1                 0.364431          1.4
3.4               5                 1                 0.364431          1.4
3.2               5                 1                 0.364431          1.4
3                 5                 1                 0.364431          1.4
2.8               5                 1                 0.364431          1.4
2.6               5                 1                 0.364431          1.4
2.4               5                 1                 0.364431          1.4
2.2               5                 1                 0.364431          1.4
2                 5                 1                 0.364431          1.4
1.8               5                 1                 0.364431          1.4
1.6               5                 1                 0.364431          1.4
1.4               5                 1                 0.364431          1.4
1.2               5                 1                 0.364431          1.4
1                 5                 1                 0.364431          1.4
0.8               5                 1                 0.364431          1.4
0.6               5                 1                 0.364431          1.4
0.4               5                 1                 0.364431          1.4
0.2               5                 1                 0.364431          1.4
0                 4.8               1                 0.364431          1.4
0                 4.6               1                 0.364431          1.4
0                 4.4               1                 0.364431          1.4
0                 4.2               1                 0.364431          1.4
0                 4                 1                 0.364431          1.4
0                 3.8               1                 0.364431          1.4
0                 3.6               1                 0.364431          1.4
0                 3.4               1                 0.364431          1.4
0                 3.2               1                 0.364431          1.4
0                 3                 1                 0.364431          1.4
0                 2.8               1                 0.364431          1.4
0                 2.6               1                 0.364431          1.4
0                 2.4               1                 0.364431          1.4
0                 2.2               1                 0.364431          1.4
0                 2                 1                 0.364431          1.4
0                 1.8               1                 0.364431          1.4
0                 1.6               1                 0.364431          1.4
0                 1.4               1                 0.364431          1.4
0                 1.2               1                 0.364431          1.4
0                 1                 1                 0.364431          1.4
0                 0.8               1                 0.364431          1.4
0                 0.6               1                 0.364431          1.4
0                 0.4               1                 0.364431          1.4
0                 0.2               1                 0.364431          1.4
13.1391           3.78317           1.28961           0.525093          1.11307
13.3203           3.86576           1.28381           0.521684          1.11828
13.1864           3.96035           1.28377           0.521067          1.11978
0.149123          4.841             1                 0.364431          1.4
0.141153          0.141153          1                 0.364431          1.4
14.8634           4.8615            1.27768           0.517443          1.13038
14.857            1.11927           1.27363           0.523015          1.10191
14.8471           1.27571           1.28034           0.522316          1.11356
0.223121          4.40434           1                 0.364431          1.4
0.105124          4.50058           1                 0.364431          1.4
0.100349          4.34232           1                 0.364431          1.4
0.114199          4.67967           1                 0.364431          1.4
0.226317          4.58918           1                 0.364431          1.4
0.341248          4.8382            1                 0.364431          1.4
0.11363           3.66392           1                 0.364431          1.4
0.18051           3.78496           1                 0.364431          1.4
0.496002          4.74015           1                 0.364431          1.4
0.533516          4.86899           1                 0.364431          1.4
0.143875          3.52955           1                 0.364431          1.4
0.343035          4.48464           1                 0.364431          1.4
0.352293          4.2947            1                 0.364431          1.4
0.494719          4.41212           1                 0.364431          1.4
0.334271          3.78239           1                 0.364431          1.4
0.251189          3.92768           1                 0.364431          1.4
0.7               4.87748           1                 0.364431          1.4
0.220543          3.23422           1                 0.364431          1.4
0.206422          3.3788            1                 0.364431          1.4
0.107677          3.2613            1                 0.364431          1.4
1.03555           4.62755           1                 0.364431          1.4
1.00593           4.48593           1                 0.364431          1.4
1.1358            4.50845           1                 0.364431          1.4
0.327773          3.29677           1                 0.364431          1.4
1.14152           4.86193           1                 0.364431          1.4
1.22924           4.65374           1                 0.364431          1.4
1.34612           4.83402           1                 0.364431          1.4
14.3949           4.74573           1.28166           0.51976           1.12694
14.5542           4.81364           1.28003           0.518836          1.12805
14.4502           4.88608           1.28086           0.519496          1.12516
0.877171          2.85534           1                 0.364431          1.4
0.746974          2.76534           1                 0.364431          1.4
0.886032          2.71381           1                 0.364431          1.4
1.22858           4.27189           1                 0.364431          1.4
1.06609           4.24355           1                 0.364431          1.4
1.16829           4.11034           1                 0.364431          1.4
1.06649           3.16158           1                 0.364431          1.4
1.21926           3.06813           1                 0.364431          1.4
1.23804           3.21054           1                 0.364431          1.4
2.34964           4.35308           1                 0.364431          1.4
2.3297            4.51304           1                 0.364431          1.4
2.16827           4.47139           1                 0.364431          1.4
0.463634          2.57441           1                 0.364431          1.4
0.439792          2.8035            1                 0.364431          1.4
0.338282          2.64519           1                 0.364431          1.4
1.42339           4.47251           1                 0.364431          1.4
1.46268           4.6617            1                 0.364431          1.4
0.335631          2.34489           1                 0.364431          1.4
0.540975          2.26369           1                 0.364431          1.4
0.456842          2.42988           1                 0.364431          1.4
1.64226           4.693             1                 0.364431          1.4
1.52852           4.78662           1                 0.364431          1.4
0.534735          0.112518          1                 0.364431          1.4
0.545428          0.273338          1                 0.364431          1.4
0.397139          0.168472          1                 0.364431          1.4
0.722616          0.163909          1                 0.364431          1.4
0.910934          0.124193          1                 0.364431          1.4
1.08719           0.10639           1                 0.364431          1.4
0.140255          1.8841            1                 0.364431          1.4
0.150765          2.12067           1                 0.364431          1.4
1.86331           4.87598           1                 0.364431          1.4
1.98499           4.82316           1                 0.364431          1.4
1.3               0.11607           1                 0.364431          1.4
1.1531            0.206343          1                 0.364431          1.4
0.854844          0.2477            1                 0.364431          1.4
0.128502          0.663473          1                 0.364431          1.4
1.32192           1.0265            1                 0.364431          1.4
1.29449           0.859568          1                 0.364431          1.4
1.44437           0.937589          1                 0.364431          1.4
1.39517           0.5374            1                 0.364431          1.4
1.49567           0.640089          1                 0.364431          1.4
1.35818           0.698714          1                 0.364431          1.4
0.211657          0.52564           1                 0.364431          1.4
0.283396          0.673396          1                 0.364431          1.4
0.199929          0.818549          1                 0.364431          1.4
1.7696            0.410125          1                 0.364431          1.4
1.88729           0.531668          1                 0.364431          1.4
1.72829           0.558727          1                 0.364431          1.4
1.61238           0.298411          1                 0.364431          1.4
1.46794           0.202063          1                 0.364431          1.4
1.65975           0.128654          1                 0.364431          1.4
0.413263          1.34814           1                 0.364431          1.4
0.244303          1.26597           1                 0.364431          1.4
0.363774          1.14678           1                 0.364431          1.4
0.182026          1.41435           1                 0.364431          1.4
0.113838          1.29472           1                 0.364431          1.4
1.8489            0.135772          1                 0.364431          1.4
1.7547            0.248645          1                 0.364431          1.4
0.32726           1.82323           1                 0.364431          1.4
0.468518          1.82856           1                 0.364431          1.4
0.435607          1.97646           1                 0.364431          1.4
2.09615           1.22029           1                 0.364431          1.4
2.00216           1.04538           1                 0.364431          1.4
2.15865           1.08324           1                 0.364431          1.4
2.4437            0.112721          1                 0.364431          1.4
2.56228           0.18088           1                 0.364431          1.4
1.51904           1.48868           1                 0.364431          1.4
1.55024           1.28225           1                 0.364431          1.4
1.67571           1.41881           1                 0.364431          1.4
2.27613           0.128726          1                 0.364431          1.4
2.4072            0.216027          1                 0.364431          1.4
0.901996          1.70856           1                 0.364431          1.4
0.727863          1.66299           1                 0.364431          1.4
0.816826          1.5581            1                 0.364431          1.4
0.234904          2.2564            1                 0.364431          1.4
0.328364          2.11098           1                 0.364431          1.4
2.90874           0.325023          1                 0.364432          1.4
2.73893           0.241784          1                 0.364431          1.4
2.90335           0.137943          1                 0.364431          1.4
3.35619           0.184352          1                 0.364431          1.4
3.51906           0.184507          1                 0.364431          1.4
2.88181           4.59381           1                 0.364431          1.4
3.09714           4.55956           1                 0.364431          1.4
3.04091           4.70584           1                 0.364431          1.4
3.1128            1.13927           1                 0.364431          1.4
3.09487           1.32563           1                 0.364431          1.4
2.97647           1.27064           1                 0.364431          1.4
2.48715           4.88229           1                 0.364431          1.4
3.92295           0.14153           1                 0.364432          1.4
3.70765           0.130559          1                 0.364431          1.4
2.88135           4.77675           1                 0.364431          1.4
2.71038           4.70262           1                 0.364431          1.4
3.94453           0.309829          1                 0.364432          1.4
3.93769           0.468578          1                 0.364432          1.4
3.76227           0.378731          1                 0.364431          1.4
3.31179           4.46914           1                 0.364431          1.4
3.46936           4.38083           1                 0.364431          1.4
3.50046           4.52108           1                 0.364431          1.4
4.0851            0.402637          1                 0.364432          1.4
4.19736           0.522243          1                 0.364431          1.4
4.05954           0.544012          1                 0.364432          1.4
2.95362           3.39229           1                 0.364431          1.4
2.832             3.29913           1                 0.364432          1.4
2.95658           3.20896           1                 0.364431          1.4
4.15087           0.244267          1                 0.364431          1.4
3.20051           4.76977           1                 0.364431          1.4
3.34149           4.84711           1                 0.364431          1.4
3.47427           4.89007           1                 0.364431          1.4
3.59063           4.82852           1                 0.364431          1.4
4.36094           0.176823          1                 0.364432          1.4
4.31981           0.372797          1                 0.364431          1.4
4.6687            0.161497          1                 0.364431          1.4
4.50688           0.11918           1                 0.364432          1.4
4.77523           2.84732           1                 0.364431          1.4
4.80452           3.06599           1                 0.364432          1.4
4.60715           2.99299           1                 0.364431          1.4
4.79492           0.976039          1                 0.364432          1.4
4.74326           1.13687           1                 0.364432          1.4
4.67288           1.03134           1                 0.364432          1.4
3.71211           4.88754           1                 0.364431          1.4
3.85561           4.8304            1                 0.364431          1.4
4.28366           4.1258            1                 0.364431          1.4
4.11981           4.07462           1                 0.364431          1.4
4.21452           3.95203           1                 0.364431          1.4
4.07677           4.6754            1                 0.364431          1.4
4.21866           4.65654           1                 0.364431          1.4
4.14481           4.78851           1                 0.364431          1.4
4.88776           0.158175          1                 0.364432          1.4
5.0701            0.117445          1                 0.364432          1.4
4.13487           4.8943            1                 0.364431          1.4
4.02944           4.81906           1                 0.364431          1.4
4.98119           0.455159          1                 0.364431          1.4
4.81153           0.41187           1                 0.364432          1.4
4.92386           0.313031          1                 0.364432          1.4
4.88215           4.05296           1                 0.364431          1.4
4.95145           3.87196           1                 0.364431          1.4
5.02693           4.04389           1                 0.364431          1.4
5.75872           0.431228          1                 0.364432          1.4
5.56509           0.443539          1                 0.364431          1.4
5.62802           0.290207          1                 0.364431          1.4
4.55023           4.73703           1                 0.364431          1.4
4.66579           4.84112           1                 0.364431          1.4
4.53289           4.87143           1                 0.364431          1.4
4.84126           4.45767           1                 0.364431          1.4
4.99089           4.45368           1                 0.364431          1.4
4.84487           4.60541           1                 0.364431          1.4
5.83087           0.6306            1                 0.364432          1.4
5.91032           0.475033          1                 0.364431          1.4